48
Lattice="8.784642506826252 0.0 0.0 0.0 12.507487386471752 0.0 0.0 0.0 8.50552846969168" Properties=species:S:1:pos:R:3:masses:R:1:forces:R:3 config_type=HAL_nothing energy=-4730605.6235458 virial="-16.905687433828465 -0.24927780707516634 -0.9157319397046336 -0.24927780707516634 -3.625714583900138 0.1847668712485234 -0.9157319397046336 0.1847668712485234 -12.964044022381538" stress="0.01808995 0.00026674 0.00097988 0.00026674 0.0038797 -0.00019771 0.00097988 -0.00019771 0.01387219" free_energy=-4730605.6235458 pbc="T T T"
Pb       0.02312996      -0.01591455       4.32985811     
Pb       4.43570526       6.34530747       0.01629678     
Pb       0.09099916       6.34558164       4.22883173     
Pb       4.34750528      -0.19029088       0.11307870     
I        8.59892265       3.03832653       4.83800836    
I        4.35519048       3.18451163       8.04783158   
I        0.32269572       9.42481797       3.83697718  
I        4.54625908       9.36478868       0.37606161 
I        5.90676647       0.18974779       2.74333359
I        1.51512763       5.87148522       1.45747389   
I        2.94581422       6.55917739       5.71219031  
I        7.30747033      12.27221481       7.10552151 
I        2.88902094      12.28532563       5.53567206
I        7.02812863       6.52576790       6.94001547    
I        6.01296063       6.23668500       2.86469795   
I        1.52642992       0.31018118       1.62127665   
N        3.97466780       9.37556851       4.05605754   
N        8.37720909       9.36700446       0.19467408   
N        4.79867065       3.13313554       4.43154835   
N        0.41996199       3.11357934       8.31122835   
C        3.59132723       3.14041663       3.61547929   
C        7.98767497       3.13335860       0.62447682   
C        5.19835190       9.38416934       4.88312376   
C        0.82320829       9.37244464       7.87700161   
H        3.98804114       3.14287260       2.62816241   
H        8.31532170       3.11251304       1.63573955  
H        4.87001510       9.37556720       5.88933888  
H        0.42984202       9.34826941       6.85561961    
H        3.04932932       2.25433011       3.85385994    
H        7.39909156       3.98377816       0.39703189    
H        5.76436681       8.50034358       4.68921935    
H        1.35836495      10.28437529       8.10452078    
H        5.71954498      10.29487477       4.64243494    
H        1.34535729       8.45937958       8.13222595    
H        3.04420287       4.01157045       3.88177923    
H        7.40927552       2.25824951       0.40052234    
H        5.42156906       2.33106759       4.27807595    
H        1.02360886       3.91215221      -0.05031235    
H        3.38223043       8.56136220       4.18603943    
H        7.76098005      10.16738112       8.53999116    
H        3.32537067      10.14442872       4.15403091    
H        7.71990214       8.59098006       8.56429881    
H        5.43799718       3.90707536       4.32152649    
H        1.04621139       2.33639030      -0.04552814    
H        4.17105758       9.35478949       3.02159770    
H        8.59694578       9.37685560       1.22330688    
H        4.63420215       3.13484048       5.46201903    
H        0.23016455       3.10767677       7.27696138    
