48
Lattice="8.784642506826252 0.0 0.0 0.0 12.507487386471752 0.0 0.0 0.0 8.50552846969168" Properties=species:S:1:pos:R:3:momenta:R:3:masses:R:1:forces:R:3 config_type=HAL_nothing energy=-4730605.6235458 virial="-16.905687433828465 -0.24927780707516634 -0.9157319397046336 -0.24927780707516634 -3.625714583900138 0.1847668712485234 -0.9157319397046336 0.1847668712485234 -12.964044022381538" stress="0.01808995 0.00026674 0.00097988 0.00026674 0.0038797 -0.00019771 0.00097988 -0.00019771 0.01387219" free_energy=-4730605.6235458 pbc="T T T"
Pb       0.02312996      -0.01591455       4.32985811       0.42313888       0.00524839       0.17556886     207.20000000      -0.08599205       0.12231094       0.09552856
Pb       4.43570526       6.34530747       0.01629678       0.10832729       0.22937053       0.55962724     207.20000000      -0.19371449      -0.71322296       0.09522385
Pb       0.09099916       6.34558164       4.22883173      -0.05635233       0.05798615      -0.56783882     207.20000000      -0.03004435      -0.28035493       0.03293873
Pb       4.34750528      -0.19029088       0.11307870      -0.42795092       0.69417174       0.04295789     207.20000000      -0.02770878       0.88581080      -0.31691022
I        8.59892265       3.03832653       4.83800836      -0.60471042       0.26109027       0.37903004     126.90447000      -0.05264102       0.43159460      -0.12759788
I        4.35519048       3.18451163       8.04783158      -0.18638301      -0.29306403      -0.41536363     126.90447000      -0.10067913      -0.19119129      -0.02125024
I        0.32269572       9.42481797       3.83697718       0.27120662      -0.20597158       0.17868197     126.90447000      -0.06397563      -0.30426670      -0.20990471
I        4.54625908       9.36478868       0.37606161       0.10963736       0.26700607      -0.07415961     126.90447000       0.02959071       0.00641183       0.22404674
I        5.90676647       0.18974779       2.74333359       0.62039307      -0.59800717      -0.36322760     126.90447000       0.11878271      -0.05347875       0.02586244
I        1.51512763       5.87148522       1.45747389      -0.80017949       0.53036134       0.25674544     126.90447000       0.03471857       0.32718724       0.15529510
I        2.94581422       6.55917739       5.71219031      -0.32381819       0.50140807       0.62429661     126.90447000      -0.14694555      -0.23608478       0.10835829
I        7.30747033      12.27221481       7.10552151      -0.32393867       0.10217671       0.21346043     126.90447000      -0.27852396       0.05544328       0.12404453
I        2.88902094      12.28532563       5.53567206      -0.19260865       0.03303054       0.53270300     126.90447000       0.06994133       0.19996518       0.43407580
I        7.02812863       6.52576790       6.94001547       1.00041228       0.81276969      -0.43478898     126.90447000       0.41955821      -0.03477790      -0.09097178
I        6.01296063       6.23668500       2.86469795      -0.12562480      -0.45284544      -0.25934568     126.90447000      -0.04712645      -0.10320020      -0.19064215
I        1.52642992       0.31018118       1.62127665       0.42767726       0.10794682       0.22381980     126.90447000       0.22914318      -0.11360128      -0.34696579
N        3.97466780       9.37556851       4.05605754      -0.06377984      -0.23486848       0.06826720      14.00700000       0.07063329      -0.62375515      -2.47338600
N        8.37720909       9.36700446       0.19467408       0.19595455      -0.29181359      -0.14304556      14.00700000      -0.58543330       0.10299509       2.12142988
N        4.79867065       3.13313554       4.43154835      -0.21382330       0.23159177      -0.39190610      14.00700000       1.25600610      -0.51619777       2.29000136
N        0.41996199       3.11357934       8.31122835       0.09476647      -0.16058626       0.07648882      14.00700000       0.04405521       0.19572528      -2.04202703
C        3.59132723       3.14041663       3.61547929      -0.19269429       0.32483169      -0.09865519      12.01100000       1.24654375      -0.02589415       0.46113943
C        7.98767497       3.13335860       0.62447682       0.00305025       0.14973862      -0.10364483      12.01100000       0.90163930      -0.76943494      -0.36957104
C        5.19835190       9.38416934       4.88312376       0.07706290       0.05846102       0.07185017      12.01100000      -1.19284722       0.55850222      -0.73717790
C        0.82320829       9.37244464       7.87700161       0.27209430      -0.13808566       0.10882351      12.01100000      -1.81820370      -0.37661485      -0.09272403
H        3.98804114       3.14287260       2.62816241       0.31528358       0.00747744       0.14075930       1.00800000      -0.45244919       0.07294524      -1.11354722
H        8.31532170       3.11251304       1.63573955       0.13526697       0.00716281      -0.15567255       1.00800000      -0.02416397       0.10199515       0.95430446
H        4.87001510       9.37556720       5.88933888      -0.16295160       0.02667216      -0.17225638       1.00800000      -0.12539631       0.12230909       1.08027071
H        0.42984202       9.34826941       6.85561961      -0.24399350      -0.08508952       0.15215187       1.00800000       0.67904511       0.06058941      -0.02817481
H        3.04932932       2.25433011       3.85385994       0.15058197       0.02513944       0.06229673       1.00800000      -0.44188626      -0.60850662      -0.07108196
H        7.39909156       3.98377816       0.39703189       0.11369158       0.00536096      -0.06703093       1.00800000      -0.27986774       0.97606691      -0.18295534
H        5.76436681       8.50034358       4.68921935      -0.12155722       0.04757268      -0.08618844       1.00800000       0.34999867      -0.45765643      -0.31251763
H        1.35836495      10.28437529       8.10452078      -0.17427467      -0.01497344       0.07923594       1.00800000       0.19281660       0.03618318      -0.08135139
H        5.71954498      10.29487477       4.64243494      -0.14635699      -0.00280961      -0.02492947       1.00800000       0.36790152       0.19908851       0.05353297
H        1.34535729       8.45937958       8.13222595      -0.17271459      -0.05479385       0.14336521       1.00800000       0.35925538       0.01402036      -0.14712329
H        3.04420287       4.01157045       3.88177923       0.17716042       0.06988712       0.13246342       1.00800000      -0.52139454       0.72479290      -0.11458801
H        7.40927552       2.25824951       0.40052234       0.10280518       0.02549097      -0.09685048       1.00800000      -0.15466795      -0.50899367      -0.07550079
H        5.42156906       2.33106759       4.27807595       0.17603962       0.03188576       0.11622216       1.00800000      -0.33536754      -0.45227316      -0.32761787
H        1.02360886       3.91215221      -0.05031235       0.06919415      -0.12164003      -0.13021817       1.00800000       0.12988105       0.89501956       0.40415055
H        3.38223043       8.56136220       4.18603943      -0.10396465       0.00160644      -0.17190798       1.00800000      -0.00981023      -0.78136877       0.55279083
H        7.76098005      10.16738112       8.53999116      -0.16021123      -0.07215223       0.15899750       1.00800000       0.25533404       0.73587111      -0.30131739
H        3.32537067      10.14442872       4.15403091      -0.18654303      -0.13437087      -0.21475090       1.00800000      -0.01342032       1.03681807       0.67791947
H        7.71990214       8.59098006       8.56429881      -0.15812886       0.02360452       0.12302059       1.00800000       0.48870617      -0.65074313      -0.39838136
H        5.43799718       3.90707536       4.32152649       0.10912665      -0.06834855       0.16356864       1.00800000       0.04897640       1.04077925      -0.63397038
H        1.04621139       2.33639030      -0.04552814       0.14950204       0.06555530      -0.07872190       1.00800000       0.04874533      -0.99688714       0.52823555
H        4.17105758       9.35478949       3.02159770      -0.01242643      -0.03710557      -0.12094530       1.00800000       0.26463450       0.05795643       0.73341415
H        8.59694578       9.37685560       1.22330688       0.03268385      -0.03652251       0.07361677       1.00800000      -0.07426823      -0.00620968      -0.62253731
H        4.63420215       3.13484048       5.46201903       0.08971272       0.01789249       0.08241447       1.00800000      -0.35127718      -0.12181605      -0.20437205
H        0.23016455       3.10767677       7.27696138       0.06751261      -0.00938864      -0.08251640       1.00800000      -0.19810203      -0.03385134       0.48160220